# vtk DataFile Version 3.0
hex-topology-r12
ASCII
DATASET UNSTRUCTURED_GRID
POINTS 82 double
0 0 0
1 0 0
2 0 0
3 0 0
0 1 0
1 1 0
2 1 0
3 1 0
0 0 1
1 0 1
2 0 1
3 0 1
0 1 1
1 1 1
2 1 1
3 1 1
0 0 2
1 0 2
2 0 2
3 0 2
0 1 2
1 1 2
2 1 2
3 1 2
0 0 3
1 0 3
2 0 3
3 0 3
0 1 3
1 1 3
2 1 3
3 1 3
0 0 4
1 0 4
1 1 4
0 1 4
2 0 4
2 1 4
3 0 4
3 1 4
4 0 3
4 1 3
4 1 4
4 0 4
4 0 2
4 1 2
4 0 1
4 1 1
4 0 0
4 1 0
1.1434799445356112 0.17499384958352537 5.184850186688103
1.4120756110199442 0.17499384958352537 4.592927591089674
1.4120756110199442 0.8250061504164746 4.592927591089674
1.1434799445356112 0.8250061504164746 5.184850186688103
2.856520055464389 0.17499384958352537 5.184850186688104
2.587924388980056 0.17499384958352537 4.5929275910896745
2.587924388980056 0.8250061504164746 4.5929275910896745
2.856520055464389 0.8250061504164746 5.184850186688104
4.592927591089674 0.17499384958352537 2.587924388980056
4.592927591089674 0.8250061504164746 2.587924388980056
5.184850186688103 0.8250061504164746 2.856520055464389
5.184850186688103 0.17499384958352537 2.856520055464389
4.5929275910896745 0.17499384958352532 1.4120756110199444
4.5929275910896745 0.8250061504164747 1.4120756110199444
5.184850186688104 0.8250061504164747 1.1434799445356114
5.184850186688104 0.17499384958352532 1.1434799445356114
2.25 0 2.25
2.25 0 2.75
2.75 0 2.75
2.75 0 2.25
2.25 1 2.25
2.25 1 2.75
2.75 1 2.75
2.75 1 2.25
0.25 0.25 0.25
0.75 0.25 0.25
0.75 0.75 0.25
0.25 0.75 0.25
0.25 0.25 0.75
0.75 0.25 0.75
0.75 0.75 0.75
0.25 0.75 0.75
CELLS 30 270
8 0 1 5 4 74 75 76 77
8 78 79 80 81 8 9 13 12
8 0 8 9 1 74 78 79 75
8 5 13 12 4 76 80 81 77
8 1 9 13 5 75 79 80 76
8 0 4 12 8 74 77 81 78
8 1 2 6 5 9 10 14 13
8 2 3 7 6 10 11 15 14
8 8 9 13 12 16 17 21 20
8 9 10 14 13 17 18 22 21
8 10 11 15 14 18 19 23 22
8 16 17 21 20 24 25 29 28
8 17 18 22 21 25 26 30 29
8 18 22 30 26 66 70 71 67
8 27 31 23 19 68 72 73 69
8 26 30 31 27 67 71 72 68
8 18 19 23 22 66 69 73 70
8 24 25 29 28 32 33 34 35
8 25 26 30 29 33 36 37 34
8 26 27 31 30 36 38 39 37
8 27 31 39 38 40 41 42 43
8 19 23 31 27 44 45 41 40
8 11 15 23 19 46 47 45 44
8 3 7 15 11 48 49 47 46
8 32 33 34 35 50 51 52 53
8 50 51 52 53 54 55 56 57
8 54 55 56 57 43 38 39 42
8 40 41 42 43 58 59 60 61
8 58 59 60 61 62 63 64 65
8 62 63 64 65 46 47 49 48
CELL_TYPES 30
12
12
12
12
12
12
12
12
12
12
12
12
12
12
12
12
12
12
12
12
12
12
12
12
12
12
12
12
12
12
CELL_DATA 30
SCALARS cell_id int 1
LOOKUP_TABLE default
0
1
2
3
4
5
6
7
8
9
10
11
12
13
14
15
16
17
18
19
20
21
22
23
24
25
26
27
28
29
